Grid Search Start:  2023-11-02 14:37:55


  -------------------------------------------------------------------
                              /\
   |\    /|                  /++\
   ||\  /||                 /++++\
   || \/ || ||             /++++++\
   ||    || ||            /PyRAI2MD\
   ||    || ||           /++++++++++\                    __
            ||          /++++++++++++\    |\ |  /\  |\/| | \
            ||__ __    *==============*   | \| /--\ |  | |_/

                          Python Rapid
                     Artificial Intelligence
                  Ab Initio Molecular Dynamics



                      Author @Jingbai Li
                      
                      
    2022 – present   Hoffmann Institute of Advanced Materials
                     Shenzhen Polytechnic, Shenzhen, China    
                                
    2019 – 2022      Department of Chemistry and Chemical Biology
                     Northeastern University, Boston, USA

                          version:   2.3 alpha

  With contributions from (in alphabetic order):
    Jingbai Li     - Fewest switches surface hopping
                     Zhu-Nakamura surface hopping
                     Velocity Verlet
                     OpenMolcas interface
                     OpenMolcas/Tinker interface
                     BAGEL interface
                     ORCA interface
                     GFN-xTB interface
                     Adaptive sampling
                     Grid search
                     Multilayer ONIOM (QM:QM' and QM:QM':MM)
                     Periodic boundary condition (coming soon)
                     Wall potential
                     QC/ML hybrid NAMD
                     Excited-state Equivariant Neural Network

    Patrick Reiser - Fully connected neural networks (pyNNsMD)
                     SchNet (pyNNsMD)

  Special acknowledgement to:
    Steven A. Lopez            - Project co-founder
    Pascal Friederich          - Project co-founder




  &control
-------------------------------------------------------
  Title:                      dbh       
  NPROCS for ML:              20        
  NPROCS for QC:              1         
  NPROCS for Multiscale:      1          
  Seed:                       1         
  Job: 	                      search    
  QM:          	       	      nn        
  Ab initio:                  molcas    
-------------------------------------------------------

        
  &molecule
-------------------------------------------------------
  States:                     [1]       
  Spin:                       [0]       
  Interstates:                []        
  QMMM keyfile:               None      
  QMMM xyzfile:               Input     
  High level region:          []         ...
  Middel level region:        []         ...
  Boundary:                   []         ...
  Embedding charges:          False     
  Reading charge:             False     
  Frozen atoms:               []        
  Constrained atoms:          []        
  External potential shape:   ellipsoid 
  External potential factor:  40        
  External potential radius:  []        
  External potential center:  []        
  Compress potential shape    []        
  Track geometry type         None      
  Track indices               []        
  Track threshold             []                          
  Primitive vectors:          []        
  Lattice constant:           []        
-------------------------------------------------------

        
  &nn
-------------------------------------------------------
  Train data:                 data-shuffled.json
  Prediction data:            None      
  Train mode:                 training  
  Silent mode:                1         
  Data splits:                10        
  NN EG type:                 1         
  NN NAC type:                0         
  NN SOC type:                0         
  Multiscale:                 []        
  Shuffle data:               False     
  EG unit:                    si        
  NAC unit:                   si        
  SOC unit:                   cm-1
  Select EG output:           []        
  Select NAC output:          []        
  Select SOC output:          []          
  Data permutation            No        
-------------------------------------------------------

        

  multilayer perceptron (native)
  
  &hyperparameters(1)         Energy+Gradient      Nonadiabatic         Spin-orbit
----------------------------------------------------------------------------------------------
  InvD features:              0                    0                    0                    
  Angle features:             0                    0                    0                   
  Dihedral features:          0                    0                    0                   
  Activation:                 leaky_softplus       leaky_softplus       leaky_softplus      
  Activation alpha:           0.03                 0.03                 0.03                
  Layers:      	              4                    4                    4                   
  Neurons/layer:              100                  100                  100                 
  Dropout:                    False                False                False               
  Dropout ratio:              0.005                0.005                0.005               
  Regularization activation:  l2                   None                 None                
  Regularization weight:      l2                   None                 None                
  Regularization bias:        None                 None                 None                
  L1:                         1e-05                1e-05                1e-05               
  L2:         	              1e-05                1e-05                1e-05               
  Loss weights:               [5.0, 1.0]                                                    
  Phase-less loss:                                 False                                    
  Initialize weight:          True                 True                 True                
  Epoch:                      1000                 2000                 2000                
  Epoch_pre:                                       100                                      
  Epoch_min                   1000                 1000                 1000                
  Patience:                   300                  300                  300                 
  Max time:                   300                  300                  300                 
  Epoch step:                 10                   10                   10                  
  Batch:                      64                   64                   64                  
  Delta loss:                 1e-05                1e-05                1e-05               
  Shift_X:     	       	      False                False                False               
  Scale_X:                    False                False                False               
  Shift_Y:                    True                 True                 True                
  Scale_Y:                    True                 True                 True                
  Feature normalization:      1                    1                    1                   
----------------------------------------------------------------------------------------------


  
  &hyperparameters(2)         Energy+Gradient      Nonadiabatic         Spin-orbit
----------------------------------------------------------------------------------------------
  InvD features:              0                    0                    0                    
  Angle features:             0                    0                    0                   
  Dihedral features:          0                    0                    0                   
  Activation:                 leaky_softplus       leaky_softplus       leaky_softplus      
  Activation alpha:           0.03                 0.03                 0.03                
  Layers:      	              4                    4                    4                   
  Neurons/layer:              100                  100                  100                 
  Dropout:                    False                False                False               
  Dropout ratio:              0.005                0.005                0.005               
  Regularization activation:  None                 None                 None                
  Regularization weight:      None                 None                 None                
  Regularization bias:        None                 None                 None                
  L1:                         1e-05                1e-05                1e-05               
  L2:         	              1e-05                1e-05                1e-05               
  Loss weights:               [1, 1]                                                        
  Phase-less loss:                                 False                                    
  Initialize weight:          True                 True                 True                
  Epoch:                      2000                 2000                 2000                
  Epoch_pre:                                       100                                      
  Epoch_min                   1000                 1000                 1000                
  Patience:                   300                  300                  300                 
  Max time:                   300                  300                  300                 
  Epoch step:                 10                   10                   10                  
  Batch:                      64                   64                   64                  
  Delta loss:                 1e-05                1e-05                1e-05               
  Shift_X:     	       	      False                False                False               
  Scale_X:                    False                False                False               
  Shift_Y:                    True                 True                 True                
  Scale_Y:                    True                 True                 True                
  Feature normalization:      1                    1                    1                   
----------------------------------------------------------------------------------------------


  &grid search
-------------------------------------------------------
  (nn/demo)
  Layers:                     [3, 4, 5, 6, 7]
  Neurons/layer::             [200, 300, 400, 500, 600, 700, 800]
  Batch:                      [64, 128] 
  L1:                         [1e-08]   
  L2:                         [1e-07, 1e-08, 1e-09]
  Dropout:                    [0.005]   
  (e2n2)
  n_features                  [16]      
  n_blocks                    [3]       
  l_max                       [1]       
  n_rbf                       [8]       
  rbf_layers                  [2]       
  rbf_neurons                 [32]      
  Job distribution            1         
  Retrieve data               0         
-------------------------------------------------------




 *---------------------------------------------------*
 |                                                   |
 |                   Grid Search                     |
 |                                                   |
 *---------------------------------------------------*

 Number of search: 210

  Layers   Nodes   Batch    L1        L2       Dropout    Energy1    Gradient1    NAC1        SOC1        Energy2    Gradient2    NAC2        SOC2        Time     Walltime
       3     200      64  1.00e-08  1.00e-07  5.00e-03  0.10417137  0.23229129  0.00000000  0.00000000  0.10361400  0.23368977  0.00000000  0.00000000  3.40e+02     0 days     0 hours     5 minutes    40 seconds
       3     200      64  1.00e-08  1.00e-08  5.00e-03  0.10558714  0.23170373  0.00000000  0.00000000  0.10242602  0.22960484  0.00000000  0.00000000  3.02e+02     0 days     0 hours     5 minutes     2 seconds
       3     200      64  1.00e-08  1.00e-09  5.00e-03  0.10830177  0.23266269  0.00000000  0.00000000  0.10381994  0.23099497  0.00000000  0.00000000  2.58e+02     0 days     0 hours     4 minutes    18 seconds
       3     200     128  1.00e-08  1.00e-07  5.00e-03  0.12500808  0.26369874  0.00000000  0.00000000  0.12145148  0.26363024  0.00000000  0.00000000  1.58e+02     0 days     0 hours     2 minutes    38 seconds
       3     200     128  1.00e-08  1.00e-08  5.00e-03  0.12445015  0.26576079  0.00000000  0.00000000  0.12198842  0.26481870  0.00000000  0.00000000  2.26e+02     0 days     0 hours     3 minutes    46 seconds
       3     200     128  1.00e-08  1.00e-09  5.00e-03  0.12422789  0.26254006  0.00000000  0.00000000  0.12413220  0.26771309  0.00000000  0.00000000  2.15e+02     0 days     0 hours     3 minutes    35 seconds
       3     300      64  1.00e-08  1.00e-07  5.00e-03  0.10178817  0.21446545  0.00000000  0.00000000  0.10164387  0.21915473  0.00000000  0.00000000  5.67e+02     0 days     0 hours     9 minutes    27 seconds
       3     300      64  1.00e-08  1.00e-08  5.00e-03  0.10749598  0.22151752  0.00000000  0.00000000  0.09965226  0.21554894  0.00000000  0.00000000  3.89e+02     0 days     0 hours     6 minutes    29 seconds
       3     300      64  1.00e-08  1.00e-09  5.00e-03  0.10469850  0.21875720  0.00000000  0.00000000  0.10037958  0.21836906  0.00000000  0.00000000  2.99e+02     0 days     0 hours     4 minutes    59 seconds
       3     300     128  1.00e-08  1.00e-07  5.00e-03  0.12029524  0.25148125  0.00000000  0.00000000  0.11654590  0.25101970  0.00000000  0.00000000  1.84e+02     0 days     0 hours     3 minutes     4 seconds
       3     300     128  1.00e-08  1.00e-08  5.00e-03  0.11489252  0.24938559  0.00000000  0.00000000  0.11791325  0.25219766  0.00000000  0.00000000  1.81e+02     0 days     0 hours     3 minutes     1 seconds
       3     300     128  1.00e-08  1.00e-09  5.00e-03  0.11936401  0.25207192  0.00000000  0.00000000  0.11484552  0.25318868  0.00000000  0.00000000  1.97e+02     0 days     0 hours     3 minutes    17 seconds
       3     400      64  1.00e-08  1.00e-07  5.00e-03  0.10105416  0.20545438  0.00000000  0.00000000  0.09863359  0.20815585  0.00000000  0.00000000  4.07e+02     0 days     0 hours     6 minutes    47 seconds
       3     400      64  1.00e-08  1.00e-08  5.00e-03  0.10528621  0.21550066  0.00000000  0.00000000  0.09765028  0.20950978  0.00000000  0.00000000  2.96e+02     0 days     0 hours     4 minutes    56 seconds
       3     400      64  1.00e-08  1.00e-09  5.00e-03  0.10375130  0.21596992  0.00000000  0.00000000  0.09504588  0.20384463  0.00000000  0.00000000  3.15e+02     0 days     0 hours     5 minutes    15 seconds
       3     400     128  1.00e-08  1.00e-07  5.00e-03  0.11875014  0.24370169  0.00000000  0.00000000  0.11278666  0.24400791  0.00000000  0.00000000  2.35e+02     0 days     0 hours     3 minutes    55 seconds
       3     400     128  1.00e-08  1.00e-08  5.00e-03  0.11411416  0.24328698  0.00000000  0.00000000  0.11424511  0.24787854  0.00000000  0.00000000  2.45e+02     0 days     0 hours     4 minutes     5 seconds
       3     400     128  1.00e-08  1.00e-09  5.00e-03  0.12087071  0.24741734  0.00000000  0.00000000  0.11605746  0.24798951  0.00000000  0.00000000  2.43e+02     0 days     0 hours     4 minutes     3 seconds
       3     500      64  1.00e-08  1.00e-07  5.00e-03  0.10054502  0.20324248  0.00000000  0.00000000  0.09449737  0.19879460  0.00000000  0.00000000  3.77e+02     0 days     0 hours     6 minutes    17 seconds
       3     500      64  1.00e-08  1.00e-08  5.00e-03  0.09939320  0.20425080  0.00000000  0.00000000  0.09601047  0.20250995  0.00000000  0.00000000  3.93e+02     0 days     0 hours     6 minutes    33 seconds
       3     500      64  1.00e-08  1.00e-09  5.00e-03  0.10173329  0.20593735  0.00000000  0.00000000  0.09615850  0.20234874  0.00000000  0.00000000  3.52e+02     0 days     0 hours     5 minutes    52 seconds
       3     500     128  1.00e-08  1.00e-07  5.00e-03  0.11659179  0.24206495  0.00000000  0.00000000  0.11304078  0.24355946  0.00000000  0.00000000  4.14e+02     0 days     0 hours     6 minutes    54 seconds
       3     500     128  1.00e-08  1.00e-08  5.00e-03  0.11733149  0.24435698  0.00000000  0.00000000  0.11357240  0.24060691  0.00000000  0.00000000  2.99e+02     0 days     0 hours     4 minutes    59 seconds
       3     500     128  1.00e-08  1.00e-09  5.00e-03  0.11500324  0.24159707  0.00000000  0.00000000  0.10958570  0.23823256  0.00000000  0.00000000  2.78e+02     0 days     0 hours     4 minutes    38 seconds
       3     600      64  1.00e-08  1.00e-07  5.00e-03  0.09567588  0.20160407  0.00000000  0.00000000  0.09560107  0.20170311  0.00000000  0.00000000  6.64e+02     0 days     0 hours    11 minutes     4 seconds
       3     600      64  1.00e-08  1.00e-08  5.00e-03  0.09995720  0.20523013  0.00000000  0.00000000  0.09325796  0.19533318  0.00000000  0.00000000  7.22e+02     0 days     0 hours    12 minutes     2 seconds
       3     600      64  1.00e-08  1.00e-09  5.00e-03  0.09907225  0.20284612  0.00000000  0.00000000  0.09838067  0.20535033  0.00000000  0.00000000  5.13e+02     0 days     0 hours     8 minutes    33 seconds
       3     600     128  1.00e-08  1.00e-07  5.00e-03  0.11132625  0.23787284  0.00000000  0.00000000  0.11012352  0.24093303  0.00000000  0.00000000  4.58e+02     0 days     0 hours     7 minutes    38 seconds
       3     600     128  1.00e-08  1.00e-08  5.00e-03  0.11194995  0.23591414  0.00000000  0.00000000  0.11081930  0.23826731  0.00000000  0.00000000  3.76e+02     0 days     0 hours     6 minutes    16 seconds
       3     600     128  1.00e-08  1.00e-09  5.00e-03  0.11944170  0.24451359  0.00000000  0.00000000  0.11057892  0.23795238  0.00000000  0.00000000  3.54e+02     0 days     0 hours     5 minutes    54 seconds
       3     700      64  1.00e-08  1.00e-07  5.00e-03  0.09693307  0.19826834  0.00000000  0.00000000  0.09161206  0.19636674  0.00000000  0.00000000  5.90e+02     0 days     0 hours     9 minutes    50 seconds
       3     700      64  1.00e-08  1.00e-08  5.00e-03  0.09444365  0.19920114  0.00000000  0.00000000  0.09511662  0.19939371  0.00000000  0.00000000  4.90e+02     0 days     0 hours     8 minutes    10 seconds
       3     700      64  1.00e-08  1.00e-09  5.00e-03  0.09939825  0.20587157  0.00000000  0.00000000  0.09481427  0.19819437  0.00000000  0.00000000  6.63e+02     0 days     0 hours    11 minutes     3 seconds
       3     700     128  1.00e-08  1.00e-07  5.00e-03  0.11492485  0.23793014  0.00000000  0.00000000  0.11331386  0.24262974  0.00000000  0.00000000  5.23e+02     0 days     0 hours     8 minutes    43 seconds
       3     700     128  1.00e-08  1.00e-08  5.00e-03  0.11509046  0.23708182  0.00000000  0.00000000  0.11509222  0.24325024  0.00000000  0.00000000  3.14e+02     0 days     0 hours     5 minutes    14 seconds
       3     700     128  1.00e-08  1.00e-09  5.00e-03  0.12120008  0.24256317  0.00000000  0.00000000  0.11679989  0.24915728  0.00000000  0.00000000  5.04e+02     0 days     0 hours     8 minutes    24 seconds
       3     800      64  1.00e-08  1.00e-07  5.00e-03  0.09810757  0.20112386  0.00000000  0.00000000  0.09220616  0.19736202  0.00000000  0.00000000  6.40e+02     0 days     0 hours    10 minutes    40 seconds
       3     800      64  1.00e-08  1.00e-08  5.00e-03  0.09603704  0.19764435  0.00000000  0.00000000  0.09634926  0.19522131  0.00000000  0.00000000  8.32e+02     0 days     0 hours    13 minutes    52 seconds
       3     800      64  1.00e-08  1.00e-09  5.00e-03  0.09773576  0.19735534  0.00000000  0.00000000  0.09207919  0.19714062  0.00000000  0.00000000  6.50e+02     0 days     0 hours    10 minutes    50 seconds
       3     800     128  1.00e-08  1.00e-07  5.00e-03  0.11673279  0.23490558  0.00000000  0.00000000  0.11098491  0.23423155  0.00000000  0.00000000  4.91e+02     0 days     0 hours     8 minutes    11 seconds
       3     800     128  1.00e-08  1.00e-08  5.00e-03  0.11752183  0.24384336  0.00000000  0.00000000  0.11143943  0.24085068  0.00000000  0.00000000  4.79e+02     0 days     0 hours     7 minutes    59 seconds
       3     800     128  1.00e-08  1.00e-09  5.00e-03  0.11407240  0.24279467  0.00000000  0.00000000  0.11028618  0.24342473  0.00000000  0.00000000  3.67e+02     0 days     0 hours     6 minutes     7 seconds
       4     200      64  1.00e-08  1.00e-07  5.00e-03  0.10544623  0.22986055  0.00000000  0.00000000  0.09679000  0.22412870  0.00000000  0.00000000  3.83e+02     0 days     0 hours     6 minutes    23 seconds
       4     200      64  1.00e-08  1.00e-08  5.00e-03  0.09897630  0.22016624  0.00000000  0.00000000  0.09534199  0.22217306  0.00000000  0.00000000  4.13e+02     0 days     0 hours     6 minutes    53 seconds
       4     200      64  1.00e-08  1.00e-09  5.00e-03  0.09997766  0.22197952  0.00000000  0.00000000  0.09633904  0.22424394  0.00000000  0.00000000  2.52e+02     0 days     0 hours     4 minutes    12 seconds
       4     200     128  1.00e-08  1.00e-07  5.00e-03  0.11890577  0.26311795  0.00000000  0.00000000  0.11051713  0.25720956  0.00000000  0.00000000  1.74e+02     0 days     0 hours     2 minutes    54 seconds
       4     200     128  1.00e-08  1.00e-08  5.00e-03  0.11459282  0.25765209  0.00000000  0.00000000  0.11548584  0.26314820  0.00000000  0.00000000  2.41e+02     0 days     0 hours     4 minutes     1 seconds
       4     200     128  1.00e-08  1.00e-09  5.00e-03  0.11651724  0.25803872  0.00000000  0.00000000  0.11208504  0.26094005  0.00000000  0.00000000  2.06e+02     0 days     0 hours     3 minutes    26 seconds
       4     300      64  1.00e-08  1.00e-07  5.00e-03  0.09499599  0.20840258  0.00000000  0.00000000  0.08993813  0.20810731  0.00000000  0.00000000  3.07e+02     0 days     0 hours     5 minutes     7 seconds
       4     300      64  1.00e-08  1.00e-08  5.00e-03  0.09413968  0.20677757  0.00000000  0.00000000  0.09040215  0.20928176  0.00000000  0.00000000  3.68e+02     0 days     0 hours     6 minutes     8 seconds
       4     300      64  1.00e-08  1.00e-09  5.00e-03  0.09407623  0.20618932  0.00000000  0.00000000  0.09444770  0.20832655  0.00000000  0.00000000  3.27e+02     0 days     0 hours     5 minutes    27 seconds
       4     300     128  1.00e-08  1.00e-07  5.00e-03  0.10895680  0.24502495  0.00000000  0.00000000  0.10117804  0.24286562  0.00000000  0.00000000  2.48e+02     0 days     0 hours     4 minutes     8 seconds
       4     300     128  1.00e-08  1.00e-08  5.00e-03  0.10963808  0.24155987  0.00000000  0.00000000  0.10574413  0.24235294  0.00000000  0.00000000  2.30e+02     0 days     0 hours     3 minutes    50 seconds
       4     300     128  1.00e-08  1.00e-09  5.00e-03  0.10855153  0.24141080  0.00000000  0.00000000  0.10280434  0.23912252  0.00000000  0.00000000  2.19e+02     0 days     0 hours     3 minutes    39 seconds
       4     400      64  1.00e-08  1.00e-07  5.00e-03  0.09351491  0.19972397  0.00000000  0.00000000  0.08973792  0.20010223  0.00000000  0.00000000  6.20e+02     0 days     0 hours    10 minutes    20 seconds
       4     400      64  1.00e-08  1.00e-08  5.00e-03  0.09181273  0.19825209  0.00000000  0.00000000  0.09058355  0.19899243  0.00000000  0.00000000  4.04e+02     0 days     0 hours     6 minutes    44 seconds
       4     400      64  1.00e-08  1.00e-09  5.00e-03  0.09377414  0.20145507  0.00000000  0.00000000  0.09307328  0.20428994  0.00000000  0.00000000  5.75e+02     0 days     0 hours     9 minutes    35 seconds
       4     400     128  1.00e-08  1.00e-07  5.00e-03  0.10334298  0.23223101  0.00000000  0.00000000  0.10043203  0.22693428  0.00000000  0.00000000  4.06e+02     0 days     0 hours     6 minutes    46 seconds
       4     400     128  1.00e-08  1.00e-08  5.00e-03  0.10538810  0.22784317  0.00000000  0.00000000  0.10250837  0.22727712  0.00000000  0.00000000  2.75e+02     0 days     0 hours     4 minutes    35 seconds
       4     400     128  1.00e-08  1.00e-09  5.00e-03  0.10279154  0.22823392  0.00000000  0.00000000  0.10096092  0.22949030  0.00000000  0.00000000  4.18e+02     0 days     0 hours     6 minutes    58 seconds
       4     500      64  1.00e-08  1.00e-07  5.00e-03  0.09211143  0.19590808  0.00000000  0.00000000  0.08812504  0.19357653  0.00000000  0.00000000  7.29e+02     0 days     0 hours    12 minutes     9 seconds
       4     500      64  1.00e-08  1.00e-08  5.00e-03  0.09060887  0.19035824  0.00000000  0.00000000  0.08799661  0.19791757  0.00000000  0.00000000  5.56e+02     0 days     0 hours     9 minutes    16 seconds
       4     500      64  1.00e-08  1.00e-09  5.00e-03  0.09215215  0.19301925  0.00000000  0.00000000  0.08791897  0.19520850  0.00000000  0.00000000  5.02e+02     0 days     0 hours     8 minutes    22 seconds
       4     500     128  1.00e-08  1.00e-07  5.00e-03  0.10764581  0.22307454  0.00000000  0.00000000  0.10249732  0.22642306  0.00000000  0.00000000  3.74e+02     0 days     0 hours     6 minutes    14 seconds
       4     500     128  1.00e-08  1.00e-08  5.00e-03  0.10179389  0.22288966  0.00000000  0.00000000  0.09997842  0.22709866  0.00000000  0.00000000  3.45e+02     0 days     0 hours     5 minutes    45 seconds
       4     500     128  1.00e-08  1.00e-09  5.00e-03  0.10788201  0.22781359  0.00000000  0.00000000  0.09574228  0.21764133  0.00000000  0.00000000  5.07e+02     0 days     0 hours     8 minutes    27 seconds
       4     600      64  1.00e-08  1.00e-07  5.00e-03  0.09141148  0.19585554  0.00000000  0.00000000  0.08709462  0.19229578  0.00000000  0.00000000  6.98e+02     0 days     0 hours    11 minutes    38 seconds
       4     600      64  1.00e-08  1.00e-08  5.00e-03  0.09160130  0.19418094  0.00000000  0.00000000  0.08866317  0.19397087  0.00000000  0.00000000  6.03e+02     0 days     0 hours    10 minutes     3 seconds
       4     600      64  1.00e-08  1.00e-09  5.00e-03  0.08821891  0.18863721  0.00000000  0.00000000  0.08961943  0.19471065  0.00000000  0.00000000  7.56e+02     0 days     0 hours    12 minutes    36 seconds
       4     600     128  1.00e-08  1.00e-07  5.00e-03  0.10752428  0.22734030  0.00000000  0.00000000  0.10036142  0.22549454  0.00000000  0.00000000  4.15e+02     0 days     0 hours     6 minutes    55 seconds
       4     600     128  1.00e-08  1.00e-08  5.00e-03  0.10891608  0.22576375  0.00000000  0.00000000  0.10277411  0.22676416  0.00000000  0.00000000  5.08e+02     0 days     0 hours     8 minutes    28 seconds
       4     600     128  1.00e-08  1.00e-09  5.00e-03  0.10586319  0.22130755  0.00000000  0.00000000  0.09985615  0.21910773  0.00000000  0.00000000  4.56e+02     0 days     0 hours     7 minutes    36 seconds
       4     700      64  1.00e-08  1.00e-07  5.00e-03  0.09151180  0.19598013  0.00000000  0.00000000  0.08816569  0.18903887  0.00000000  0.00000000  6.48e+02     0 days     0 hours    10 minutes    48 seconds
       4     700      64  1.00e-08  1.00e-08  5.00e-03  0.08979950  0.19274465  0.00000000  0.00000000  0.08714047  0.19491110  0.00000000  0.00000000  6.20e+02     0 days     0 hours    10 minutes    20 seconds
       4     700      64  1.00e-08  1.00e-09  5.00e-03  0.09273215  0.19977327  0.00000000  0.00000000  0.08768582  0.19658271  0.00000000  0.00000000  9.42e+02     0 days     0 hours    15 minutes    42 seconds
       4     700     128  1.00e-08  1.00e-07  5.00e-03  0.10355420  0.22246917  0.00000000  0.00000000  0.09767310  0.21908672  0.00000000  0.00000000  6.64e+02     0 days     0 hours    11 minutes     4 seconds
       4     700     128  1.00e-08  1.00e-08  5.00e-03  0.10671678  0.22558597  0.00000000  0.00000000  0.10153955  0.22632788  0.00000000  0.00000000  4.07e+02     0 days     0 hours     6 minutes    47 seconds
       4     700     128  1.00e-08  1.00e-09  5.00e-03  0.11030033  0.22977373  0.00000000  0.00000000  0.09869624  0.21494423  0.00000000  0.00000000  7.08e+02     0 days     0 hours    11 minutes    48 seconds
       4     800      64  1.00e-08  1.00e-07  5.00e-03  0.09003363  0.19015625  0.00000000  0.00000000  0.08533998  0.19410873  0.00000000  0.00000000  8.67e+02     0 days     0 hours    14 minutes    27 seconds
       4     800      64  1.00e-08  1.00e-08  5.00e-03  0.08986259  0.20222457  0.00000000  0.00000000  0.08778943  0.19597280  0.00000000  0.00000000  8.90e+02     0 days     0 hours    14 minutes    50 seconds
       4     800      64  1.00e-08  1.00e-09  5.00e-03  0.08972145  0.18909296  0.00000000  0.00000000  0.08971541  0.19027824  0.00000000  0.00000000  1.16e+03     0 days     0 hours    19 minutes    17 seconds
       4     800     128  1.00e-08  1.00e-07  5.00e-03  0.10623436  0.22365811  0.00000000  0.00000000  0.10065711  0.22451045  0.00000000  0.00000000  6.78e+02     0 days     0 hours    11 minutes    18 seconds
       4     800     128  1.00e-08  1.00e-08  5.00e-03  0.10414926  0.22528885  0.00000000  0.00000000  0.09942861  0.22057539  0.00000000  0.00000000  8.75e+02     0 days     0 hours    14 minutes    35 seconds
       4     800     128  1.00e-08  1.00e-09  5.00e-03  0.10298978  0.22454844  0.00000000  0.00000000  0.10327949  0.22463671  0.00000000  0.00000000  7.66e+02     0 days     0 hours    12 minutes    46 seconds
       5     200      64  1.00e-08  1.00e-07  5.00e-03  0.09745073  0.21850966  0.00000000  0.00000000  0.09195930  0.22770709  0.00000000  0.00000000  4.79e+02     0 days     0 hours     7 minutes    59 seconds
       5     200      64  1.00e-08  1.00e-08  5.00e-03  0.09791149  0.21899084  0.00000000  0.00000000  0.09463311  0.22226942  0.00000000  0.00000000  3.33e+02     0 days     0 hours     5 minutes    33 seconds
       5     200      64  1.00e-08  1.00e-09  5.00e-03  0.09775729  0.21357472  0.00000000  0.00000000  0.09370711  0.22437474  0.00000000  0.00000000  3.08e+02     0 days     0 hours     5 minutes     8 seconds
       5     200     128  1.00e-08  1.00e-07  5.00e-03  0.11192877  0.25294570  0.00000000  0.00000000  0.10953565  0.25946950  0.00000000  0.00000000  1.88e+02     0 days     0 hours     3 minutes     8 seconds
       5     200     128  1.00e-08  1.00e-08  5.00e-03  0.10919557  0.25492495  0.00000000  0.00000000  0.10565901  0.25260709  0.00000000  0.00000000  2.90e+02     0 days     0 hours     4 minutes    50 seconds
       5     200     128  1.00e-08  1.00e-09  5.00e-03  0.11035503  0.25039483  0.00000000  0.00000000  0.10755951  0.25545528  0.00000000  0.00000000  2.55e+02     0 days     0 hours     4 minutes    15 seconds
       5     300      64  1.00e-08  1.00e-07  5.00e-03  0.09567311  0.20501176  0.00000000  0.00000000  0.09168537  0.21045468  0.00000000  0.00000000  2.96e+02     0 days     0 hours     4 minutes    56 seconds
       5     300      64  1.00e-08  1.00e-08  5.00e-03  0.09182713  0.20445323  0.00000000  0.00000000  0.08732369  0.21282908  0.00000000  0.00000000  3.72e+02     0 days     0 hours     6 minutes    12 seconds
       5     300      64  1.00e-08  1.00e-09  5.00e-03  0.09471392  0.20206077  0.00000000  0.00000000  0.08810580  0.20830748  0.00000000  0.00000000  4.27e+02     0 days     0 hours     7 minutes     7 seconds
       5     300     128  1.00e-08  1.00e-07  5.00e-03  0.10566234  0.23768824  0.00000000  0.00000000  0.09922455  0.23466291  0.00000000  0.00000000  2.86e+02     0 days     0 hours     4 minutes    46 seconds
       5     300     128  1.00e-08  1.00e-08  5.00e-03  0.10606981  0.23305504  0.00000000  0.00000000  0.10166878  0.23156432  0.00000000  0.00000000  2.86e+02     0 days     0 hours     4 minutes    46 seconds
       5     300     128  1.00e-08  1.00e-09  5.00e-03  0.10520382  0.23622220  0.00000000  0.00000000  0.10033405  0.22576957  0.00000000  0.00000000  2.40e+02     0 days     0 hours     4 minutes     0 seconds
       5     400      64  1.00e-08  1.00e-07  5.00e-03  0.09148886  0.19836850  0.00000000  0.00000000  0.08586216  0.19936431  0.00000000  0.00000000  5.55e+02     0 days     0 hours     9 minutes    15 seconds
       5     400      64  1.00e-08  1.00e-08  5.00e-03  0.09082161  0.19615239  0.00000000  0.00000000  0.08725887  0.19717841  0.00000000  0.00000000  5.02e+02     0 days     0 hours     8 minutes    22 seconds
       5     400      64  1.00e-08  1.00e-09  5.00e-03  0.09162697  0.20022026  0.00000000  0.00000000  0.08961286  0.20310825  0.00000000  0.00000000  7.50e+02     0 days     0 hours    12 minutes    30 seconds
       5     400     128  1.00e-08  1.00e-07  5.00e-03  0.10381305  0.23267705  0.00000000  0.00000000  0.09993419  0.22692275  0.00000000  0.00000000  4.67e+02     0 days     0 hours     7 minutes    47 seconds
       5     400     128  1.00e-08  1.00e-08  5.00e-03  0.10501240  0.23440406  0.00000000  0.00000000  0.09540851  0.22636936  0.00000000  0.00000000  3.47e+02     0 days     0 hours     5 minutes    47 seconds
       5     400     128  1.00e-08  1.00e-09  5.00e-03  0.10304956  0.22957929  0.00000000  0.00000000  0.09762847  0.22812294  0.00000000  0.00000000  4.83e+02     0 days     0 hours     8 minutes     3 seconds
       5     500      64  1.00e-08  1.00e-07  5.00e-03  0.08582043  0.19433229  0.00000000  0.00000000  0.08586261  0.19960350  0.00000000  0.00000000  4.72e+02     0 days     0 hours     7 minutes    52 seconds
       5     500      64  1.00e-08  1.00e-08  5.00e-03  0.08961467  0.19544317  0.00000000  0.00000000  0.08671425  0.19763085  0.00000000  0.00000000  9.26e+02     0 days     0 hours    15 minutes    26 seconds
       5     500      64  1.00e-08  1.00e-09  5.00e-03  0.09113087  0.20018358  0.00000000  0.00000000  0.08881476  0.19533092  0.00000000  0.00000000  6.92e+02     0 days     0 hours    11 minutes    32 seconds
       5     500     128  1.00e-08  1.00e-07  5.00e-03  0.09737489  0.21857310  0.00000000  0.00000000  0.09675408  0.22345754  0.00000000  0.00000000  3.76e+02     0 days     0 hours     6 minutes    16 seconds
       5     500     128  1.00e-08  1.00e-08  5.00e-03  0.10407851  0.22787999  0.00000000  0.00000000  0.09892720  0.22530693  0.00000000  0.00000000  4.76e+02     0 days     0 hours     7 minutes    56 seconds
       5     500     128  1.00e-08  1.00e-09  5.00e-03  0.10131669  0.22375922  0.00000000  0.00000000  0.10060091  0.22369681  0.00000000  0.00000000  5.80e+02     0 days     0 hours     9 minutes    40 seconds
       5     600      64  1.00e-08  1.00e-07  5.00e-03  0.08707477  0.19473938  0.00000000  0.00000000  0.08780413  0.19080409  0.00000000  0.00000000  8.06e+02     0 days     0 hours    13 minutes    26 seconds
       5     600      64  1.00e-08  1.00e-08  5.00e-03  0.09161378  0.19726610  0.00000000  0.00000000  0.08752813  0.19970880  0.00000000  0.00000000  9.51e+02     0 days     0 hours    15 minutes    51 seconds
       5     600      64  1.00e-08  1.00e-09  5.00e-03  0.08763304  0.19064740  0.00000000  0.00000000  0.08628671  0.19548879  0.00000000  0.00000000  7.24e+02     0 days     0 hours    12 minutes     4 seconds
       5     600     128  1.00e-08  1.00e-07  5.00e-03  0.09826331  0.22053514  0.00000000  0.00000000  0.09820759  0.21631844  0.00000000  0.00000000  4.66e+02     0 days     0 hours     7 minutes    46 seconds
       5     600     128  1.00e-08  1.00e-08  5.00e-03  0.09825228  0.21839584  0.00000000  0.00000000  0.09687499  0.22142116  0.00000000  0.00000000  6.20e+02     0 days     0 hours    10 minutes    20 seconds
       5     600     128  1.00e-08  1.00e-09  5.00e-03  0.10182882  0.22593581  0.00000000  0.00000000  0.09549009  0.22447835  0.00000000  0.00000000  5.29e+02     0 days     0 hours     8 minutes    49 seconds
       5     700      64  1.00e-08  1.00e-07  5.00e-03  0.08621231  0.19574676  0.00000000  0.00000000  0.08728027  0.18825462  0.00000000  0.00000000  1.51e+03     0 days     0 hours    25 minutes    14 seconds
       5     700      64  1.00e-08  1.00e-08  5.00e-03  0.08813674  0.19921683  0.00000000  0.00000000  0.08616325  0.20008384  0.00000000  0.00000000  8.95e+02     0 days     0 hours    14 minutes    55 seconds
       5     700      64  1.00e-08  1.00e-09  5.00e-03  0.08576234  0.19299596  0.00000000  0.00000000  0.08472289  0.20431420  0.00000000  0.00000000  1.31e+03     0 days     0 hours    21 minutes    48 seconds
       5     700     128  1.00e-08  1.00e-07  5.00e-03  0.10196389  0.21723726  0.00000000  0.00000000  0.09449720  0.21391893  0.00000000  0.00000000  6.85e+02     0 days     0 hours    11 minutes    25 seconds
       5     700     128  1.00e-08  1.00e-08  5.00e-03  0.10300165  0.22214412  0.00000000  0.00000000  0.09515379  0.21562385  0.00000000  0.00000000  7.93e+02     0 days     0 hours    13 minutes    13 seconds
       5     700     128  1.00e-08  1.00e-09  5.00e-03  0.09978345  0.21849793  0.00000000  0.00000000  0.09588149  0.22001718  0.00000000  0.00000000  5.08e+02     0 days     0 hours     8 minutes    28 seconds
       5     800      64  1.00e-08  1.00e-07  5.00e-03  0.08652204  0.20284788  0.00000000  0.00000000  0.08547640  0.19700485  0.00000000  0.00000000  8.00e+02     0 days     0 hours    13 minutes    20 seconds
       5     800      64  1.00e-08  1.00e-08  5.00e-03  0.08614873  0.20401692  0.00000000  0.00000000  0.08923477  0.19757294  0.00000000  0.00000000  1.48e+03     0 days     0 hours    24 minutes    45 seconds
       5     800      64  1.00e-08  1.00e-09  5.00e-03  0.08550434  0.20744774  0.00000000  0.00000000  0.08729025  0.20155341  0.00000000  0.00000000  1.52e+03     0 days     0 hours    25 minutes    18 seconds
       5     800     128  1.00e-08  1.00e-07  5.00e-03  0.09881061  0.21879344  0.00000000  0.00000000  0.09564416  0.21392076  0.00000000  0.00000000  8.18e+02     0 days     0 hours    13 minutes    38 seconds
       5     800     128  1.00e-08  1.00e-08  5.00e-03  0.10081623  0.21888522  0.00000000  0.00000000  0.09888243  0.22639256  0.00000000  0.00000000  6.59e+02     0 days     0 hours    10 minutes    59 seconds
       5     800     128  1.00e-08  1.00e-09  5.00e-03  0.10007230  0.21820779  0.00000000  0.00000000  0.09511301  0.22439309  0.00000000  0.00000000  1.13e+03     0 days     0 hours    18 minutes    49 seconds
       6     200      64  1.00e-08  1.00e-07  5.00e-03  0.09257510  0.21887993  0.00000000  0.00000000  0.09044354  0.22005637  0.00000000  0.00000000  4.32e+02     0 days     0 hours     7 minutes    12 seconds
       6     200      64  1.00e-08  1.00e-08  5.00e-03  0.09265787  0.22606793  0.00000000  0.00000000  0.09292510  0.22196584  0.00000000  0.00000000  3.78e+02     0 days     0 hours     6 minutes    18 seconds
       6     200      64  1.00e-08  1.00e-09  5.00e-03  0.09587119  0.21471728  0.00000000  0.00000000  0.08958346  0.22227762  0.00000000  0.00000000  5.91e+02     0 days     0 hours     9 minutes    51 seconds
       6     200     128  1.00e-08  1.00e-07  5.00e-03  0.11254118  0.25037336  0.00000000  0.00000000  0.10311159  0.24878208  0.00000000  0.00000000  2.19e+02     0 days     0 hours     3 minutes    39 seconds
       6     200     128  1.00e-08  1.00e-08  5.00e-03  0.11089571  0.25276407  0.00000000  0.00000000  0.10611130  0.25540437  0.00000000  0.00000000  2.65e+02     0 days     0 hours     4 minutes    25 seconds
       6     200     128  1.00e-08  1.00e-09  5.00e-03  0.11378129  0.24967235  0.00000000  0.00000000  0.10454932  0.25278631  0.00000000  0.00000000  2.22e+02     0 days     0 hours     3 minutes    42 seconds
       6     300      64  1.00e-08  1.00e-07  5.00e-03  0.08861189  0.20302436  0.00000000  0.00000000  0.08477876  0.20602570  0.00000000  0.00000000  7.49e+02     0 days     0 hours    12 minutes    29 seconds
       6     300      64  1.00e-08  1.00e-08  5.00e-03  0.08919188  0.20355347  0.00000000  0.00000000  0.08863046  0.20770243  0.00000000  0.00000000  5.07e+02     0 days     0 hours     8 minutes    27 seconds
       6     300      64  1.00e-08  1.00e-09  5.00e-03  0.09007293  0.20540679  0.00000000  0.00000000  0.08734466  0.21029131  0.00000000  0.00000000  4.26e+02     0 days     0 hours     7 minutes     6 seconds
       6     300     128  1.00e-08  1.00e-07  5.00e-03  0.10197204  0.23337512  0.00000000  0.00000000  0.09566962  0.23518239  0.00000000  0.00000000  2.94e+02     0 days     0 hours     4 minutes    54 seconds
       6     300     128  1.00e-08  1.00e-08  5.00e-03  0.10223364  0.23505743  0.00000000  0.00000000  0.09804300  0.23559983  0.00000000  0.00000000  3.07e+02     0 days     0 hours     5 minutes     7 seconds
       6     300     128  1.00e-08  1.00e-09  5.00e-03  0.10577314  0.23495991  0.00000000  0.00000000  0.09809168  0.22915369  0.00000000  0.00000000  3.20e+02     0 days     0 hours     5 minutes    20 seconds
       6     400      64  1.00e-08  1.00e-07  5.00e-03  0.08472220  0.20519358  0.00000000  0.00000000  0.08499961  0.20210394  0.00000000  0.00000000  7.43e+02     0 days     0 hours    12 minutes    23 seconds
       6     400      64  1.00e-08  1.00e-08  5.00e-03  0.08514877  0.21059353  0.00000000  0.00000000  0.08783888  0.20228105  0.00000000  0.00000000  5.72e+02     0 days     0 hours     9 minutes    32 seconds
       6     400      64  1.00e-08  1.00e-09  5.00e-03  0.08916557  0.20522934  0.00000000  0.00000000  0.08501554  0.20708601  0.00000000  0.00000000  5.35e+02     0 days     0 hours     8 minutes    55 seconds
       6     400     128  1.00e-08  1.00e-07  5.00e-03  0.09828947  0.21712862  0.00000000  0.00000000  0.09285008  0.23037780  0.00000000  0.00000000  4.99e+02     0 days     0 hours     8 minutes    19 seconds
       6     400     128  1.00e-08  1.00e-08  5.00e-03  0.09952718  0.22066500  0.00000000  0.00000000  0.09378941  0.22313518  0.00000000  0.00000000  3.62e+02     0 days     0 hours     6 minutes     2 seconds
       6     400     128  1.00e-08  1.00e-09  5.00e-03  0.10179579  0.22104755  0.00000000  0.00000000  0.09244217  0.21667492  0.00000000  0.00000000  3.24e+02     0 days     0 hours     5 minutes    24 seconds
       6     500      64  1.00e-08  1.00e-07  5.00e-03  0.08720189  0.19417651  0.00000000  0.00000000  0.08509484  0.20242947  0.00000000  0.00000000  6.29e+02     0 days     0 hours    10 minutes    29 seconds
       6     500      64  1.00e-08  1.00e-08  5.00e-03  0.08754028  0.20366916  0.00000000  0.00000000  0.08632081  0.20068594  0.00000000  0.00000000  9.46e+02     0 days     0 hours    15 minutes    46 seconds
       6     500      64  1.00e-08  1.00e-09  5.00e-03  0.08515520  0.20592751  0.00000000  0.00000000  0.08256126  0.20993369  0.00000000  0.00000000  9.03e+02     0 days     0 hours    15 minutes     3 seconds
       6     500     128  1.00e-08  1.00e-07  5.00e-03  0.09814705  0.21644464  0.00000000  0.00000000  0.09544816  0.22691762  0.00000000  0.00000000  5.69e+02     0 days     0 hours     9 minutes    29 seconds
       6     500     128  1.00e-08  1.00e-08  5.00e-03  0.10031297  0.22283640  0.00000000  0.00000000  0.09567084  0.22356352  0.00000000  0.00000000  5.60e+02     0 days     0 hours     9 minutes    20 seconds
       6     500     128  1.00e-08  1.00e-09  5.00e-03  0.10137484  0.22564444  0.00000000  0.00000000  0.09464827  0.21930835  0.00000000  0.00000000  5.75e+02     0 days     0 hours     9 minutes    35 seconds
       6     600      64  1.00e-08  1.00e-07  5.00e-03  0.08795344  0.20185064  0.00000000  0.00000000  0.08311912  0.19954600  0.00000000  0.00000000  1.05e+03     0 days     0 hours    17 minutes    29 seconds
       6     600      64  1.00e-08  1.00e-08  5.00e-03  0.08757881  0.19700150  0.00000000  0.00000000  0.08330037  0.20288643  0.00000000  0.00000000  7.80e+02     0 days     0 hours    13 minutes     0 seconds
       6     600      64  1.00e-08  1.00e-09  5.00e-03  0.08691063  0.21711404  0.00000000  0.00000000  0.08442538  0.20750733  0.00000000  0.00000000  8.25e+02     0 days     0 hours    13 minutes    45 seconds
       6     600     128  1.00e-08  1.00e-07  5.00e-03  0.09881283  0.21009555  0.00000000  0.00000000  0.09641731  0.22009513  0.00000000  0.00000000  4.72e+02     0 days     0 hours     7 minutes    52 seconds
       6     600     128  1.00e-08  1.00e-08  5.00e-03  0.09993344  0.21429122  0.00000000  0.00000000  0.09247187  0.21971833  0.00000000  0.00000000  8.12e+02     0 days     0 hours    13 minutes    32 seconds
       6     600     128  1.00e-08  1.00e-09  5.00e-03  0.09816918  0.21525734  0.00000000  0.00000000  0.09203046  0.21355010  0.00000000  0.00000000  9.19e+02     0 days     0 hours    15 minutes    19 seconds
       6     700      64  1.00e-08  1.00e-07  5.00e-03  0.08251920  0.22193819  0.00000000  0.00000000  0.08281331  0.19819085  0.00000000  0.00000000  1.28e+03     0 days     0 hours    21 minutes    22 seconds
       6     700      64  1.00e-08  1.00e-08  5.00e-03  0.08506254  0.20504432  0.00000000  0.00000000  0.08446276  0.20266075  0.00000000  0.00000000  1.04e+03     0 days     0 hours    17 minutes    19 seconds
       6     700      64  1.00e-08  1.00e-09  5.00e-03  0.08054827  0.22233668  0.00000000  0.00000000  0.07998732  0.22283789  0.00000000  0.00000000  1.26e+03     0 days     0 hours    20 minutes    58 seconds
       6     700     128  1.00e-08  1.00e-07  5.00e-03  0.10173043  0.21729122  0.00000000  0.00000000  0.09316324  0.21377730  0.00000000  0.00000000  1.13e+03     0 days     0 hours    18 minutes    53 seconds
       6     700     128  1.00e-08  1.00e-08  5.00e-03  0.10366182  0.22082300  0.00000000  0.00000000  0.09944839  0.22602746  0.00000000  0.00000000  1.18e+03     0 days     0 hours    19 minutes    36 seconds
       6     700     128  1.00e-08  1.00e-09  5.00e-03  0.09660278  0.21097073  0.00000000  0.00000000  0.09513647  0.21770091  0.00000000  0.00000000  1.02e+03     0 days     0 hours    16 minutes    57 seconds
       6     800      64  1.00e-08  1.00e-07  5.00e-03  0.08257503  0.21586659  0.00000000  0.00000000  0.08577788  0.19812243  0.00000000  0.00000000  1.23e+03     0 days     0 hours    20 minutes    29 seconds
       6     800      64  1.00e-08  1.00e-08  5.00e-03  0.08216598  0.21963514  0.00000000  0.00000000  0.08559628  0.20064806  0.00000000  0.00000000  1.76e+03     0 days     0 hours    29 minutes    25 seconds
       6     800      64  1.00e-08  1.00e-09  5.00e-03  0.08701872  0.20631797  0.00000000  0.00000000  0.08437886  0.20329301  0.00000000  0.00000000  1.60e+03     0 days     0 hours    26 minutes    45 seconds
       6     800     128  1.00e-08  1.00e-07  5.00e-03  0.10136792  0.23113206  0.00000000  0.00000000  0.09308145  0.21777747  0.00000000  0.00000000  1.03e+03     0 days     0 hours    17 minutes    13 seconds
       6     800     128  1.00e-08  1.00e-08  5.00e-03  0.09971078  0.21018528  0.00000000  0.00000000  0.09563872  0.21098887  0.00000000  0.00000000  1.08e+03     0 days     0 hours    18 minutes     0 seconds
       6     800     128  1.00e-08  1.00e-09  5.00e-03  0.09571020  0.20667155  0.00000000  0.00000000  0.09282254  0.21373737  0.00000000  0.00000000  1.32e+03     0 days     0 hours    21 minutes    59 seconds
       7     200      64  1.00e-08  1.00e-07  5.00e-03  0.09718881  0.22181724  0.00000000  0.00000000  0.08945566  0.22446913  0.00000000  0.00000000  3.49e+02     0 days     0 hours     5 minutes    49 seconds
       7     200      64  1.00e-08  1.00e-08  5.00e-03  0.09534409  0.22011832  0.00000000  0.00000000  0.09312338  0.22520891  0.00000000  0.00000000  3.86e+02     0 days     0 hours     6 minutes    26 seconds
       7     200      64  1.00e-08  1.00e-09  5.00e-03  0.09408788  0.21459802  0.00000000  0.00000000  0.09116689  0.22588271  0.00000000  0.00000000  5.42e+02     0 days     0 hours     9 minutes     2 seconds
       7     200     128  1.00e-08  1.00e-07  5.00e-03  0.10693276  0.25114657  0.00000000  0.00000000  0.10401140  0.25526251  0.00000000  0.00000000  3.09e+02     0 days     0 hours     5 minutes     9 seconds
       7     200     128  1.00e-08  1.00e-08  5.00e-03  0.10835109  0.24914760  0.00000000  0.00000000  0.10517940  0.25288060  0.00000000  0.00000000  2.92e+02     0 days     0 hours     4 minutes    52 seconds
       7     200     128  1.00e-08  1.00e-09  5.00e-03  0.10859690  0.25036075  0.00000000  0.00000000  0.10433351  0.25314771  0.00000000  0.00000000  2.68e+02     0 days     0 hours     4 minutes    28 seconds
       7     300      64  1.00e-08  1.00e-07  5.00e-03  0.08876597  0.20610114  0.00000000  0.00000000  0.08572987  0.21335014  0.00000000  0.00000000  3.75e+02     0 days     0 hours     6 minutes    15 seconds
       7     300      64  1.00e-08  1.00e-08  5.00e-03  0.08785291  0.20920513  0.00000000  0.00000000  0.08298520  0.20759450  0.00000000  0.00000000  5.24e+02     0 days     0 hours     8 minutes    44 seconds
       7     300      64  1.00e-08  1.00e-09  5.00e-03  0.08625517  0.20705035  0.00000000  0.00000000  0.08577109  0.21625269  0.00000000  0.00000000  8.19e+02     0 days     0 hours    13 minutes    39 seconds
       7     300     128  1.00e-08  1.00e-07  5.00e-03  0.10062002  0.23048109  0.00000000  0.00000000  0.09579049  0.23556721  0.00000000  0.00000000  3.76e+02     0 days     0 hours     6 minutes    16 seconds
       7     300     128  1.00e-08  1.00e-08  5.00e-03  0.10085698  0.22991102  0.00000000  0.00000000  0.09507039  0.23572507  0.00000000  0.00000000  3.26e+02     0 days     0 hours     5 minutes    26 seconds
       7     300     128  1.00e-08  1.00e-09  5.00e-03  0.10036648  0.23214418  0.00000000  0.00000000  0.09912148  0.23603121  0.00000000  0.00000000  3.40e+02     0 days     0 hours     5 minutes    40 seconds
       7     400      64  1.00e-08  1.00e-07  5.00e-03  0.08530512  0.20150727  0.00000000  0.00000000  0.08327390  0.21539033  0.00000000  0.00000000  5.87e+02     0 days     0 hours     9 minutes    47 seconds
       7     400      64  1.00e-08  1.00e-08  5.00e-03  0.08019207  0.22281080  0.00000000  0.00000000  0.08461437  0.21096040  0.00000000  0.00000000  9.68e+02     0 days     0 hours    16 minutes     8 seconds
       7     400      64  1.00e-08  1.00e-09  5.00e-03  0.08327906  0.21423751  0.00000000  0.00000000  0.08070281  0.21166998  0.00000000  0.00000000  8.49e+02     0 days     0 hours    14 minutes     9 seconds
       7     400     128  1.00e-08  1.00e-07  5.00e-03  0.09759834  0.22115224  0.00000000  0.00000000  0.09301331  0.22202967  0.00000000  0.00000000  5.59e+02     0 days     0 hours     9 minutes    19 seconds
       7     400     128  1.00e-08  1.00e-08  5.00e-03  0.09623804  0.22219347  0.00000000  0.00000000  0.09191216  0.21751057  0.00000000  0.00000000  9.90e+02     0 days     0 hours    16 minutes    30 seconds
       7     400     128  1.00e-08  1.00e-09  5.00e-03  0.09871400  0.22416123  0.00000000  0.00000000  0.09493732  0.23255769  0.00000000  0.00000000  3.68e+02     0 days     0 hours     6 minutes     8 seconds
       7     500      64  1.00e-08  1.00e-07  5.00e-03  0.08527562  0.21133423  0.00000000  0.00000000  0.08481747  0.21444378  0.00000000  0.00000000  1.34e+03     0 days     0 hours    22 minutes    20 seconds
       7     500      64  1.00e-08  1.00e-08  5.00e-03  0.08164905  0.21034900  0.00000000  0.00000000  0.08365384  0.20582865  0.00000000  0.00000000  9.68e+02     0 days     0 hours    16 minutes     8 seconds
       7     500      64  1.00e-08  1.00e-09  5.00e-03  0.08399391  0.20984837  0.00000000  0.00000000  0.08389502  0.20143459  0.00000000  0.00000000  1.24e+03     0 days     0 hours    20 minutes    43 seconds
       7     500     128  1.00e-08  1.00e-07  5.00e-03  0.09840218  0.22792813  0.00000000  0.00000000  0.09382424  0.22844545  0.00000000  0.00000000  6.16e+02     0 days     0 hours    10 minutes    16 seconds
       7     500     128  1.00e-08  1.00e-08  5.00e-03  0.10175410  0.21338008  0.00000000  0.00000000  0.08985874  0.21917403  0.00000000  0.00000000  1.17e+03     0 days     0 hours    19 minutes    28 seconds
       7     500     128  1.00e-08  1.00e-09  5.00e-03  0.09786285  0.21768576  0.00000000  0.00000000  0.09417319  0.22481724  0.00000000  0.00000000  4.75e+02     0 days     0 hours     7 minutes    55 seconds
       7     600      64  1.00e-08  1.00e-07  5.00e-03  0.08453834  0.20238811  0.00000000  0.00000000  0.08239499  0.20539058  0.00000000  0.00000000  1.79e+03     0 days     0 hours    29 minutes    49 seconds
       7     600      64  1.00e-08  1.00e-08  5.00e-03  0.08587449  0.20946397  0.00000000  0.00000000  0.08240374  0.21094559  0.00000000  0.00000000  1.24e+03     0 days     0 hours    20 minutes    35 seconds
       7     600      64  1.00e-08  1.00e-09  5.00e-03  0.08521066  0.21021627  0.00000000  0.00000000  0.08287914  0.21517852  0.00000000  0.00000000  9.44e+02     0 days     0 hours    15 minutes    44 seconds
       7     600     128  1.00e-08  1.00e-07  5.00e-03  0.09714970  0.21672731  0.00000000  0.00000000  0.09408377  0.21931301  0.00000000  0.00000000  6.08e+02     0 days     0 hours    10 minutes     8 seconds
       7     600     128  1.00e-08  1.00e-08  5.00e-03  0.09479808  0.20944045  0.00000000  0.00000000  0.09213326  0.21708796  0.00000000  0.00000000  5.28e+02     0 days     0 hours     8 minutes    48 seconds
       7     600     128  1.00e-08  1.00e-09  5.00e-03  0.09427064  0.21183549  0.00000000  0.00000000  0.09091584  0.21789128  0.00000000  0.00000000  9.82e+02     0 days     0 hours    16 minutes    22 seconds
       7     700      64  1.00e-08  1.00e-07  5.00e-03  0.08058012  0.23186816  0.00000000  0.00000000  0.08441340  0.20333218  0.00000000  0.00000000  1.20e+03     0 days     0 hours    20 minutes     5 seconds
       7     700      64  1.00e-08  1.00e-08  5.00e-03  0.08475681  0.19857935  0.00000000  0.00000000  0.08477972  0.20820454  0.00000000  0.00000000  1.76e+03     0 days     0 hours    29 minutes    17 seconds
       7     700      64  1.00e-08  1.00e-09  5.00e-03  0.08115695  0.22120181  0.00000000  0.00000000  0.08338949  0.20812474  0.00000000  0.00000000  1.82e+03     0 days     0 hours    30 minutes    18 seconds
       7     700     128  1.00e-08  1.00e-07  5.00e-03  0.10195536  0.22139348  0.00000000  0.00000000  0.09502525  0.22234083  0.00000000  0.00000000  9.99e+02     0 days     0 hours    16 minutes    39 seconds
       7     700     128  1.00e-08  1.00e-08  5.00e-03  0.09822546  0.21158381  0.00000000  0.00000000  0.08894187  0.21340848  0.00000000  0.00000000  7.11e+02     0 days     0 hours    11 minutes    51 seconds
       7     700     128  1.00e-08  1.00e-09  5.00e-03  0.09656943  0.21344059  0.00000000  0.00000000  0.09239405  0.22068213  0.00000000  0.00000000  1.00e+03     0 days     0 hours    16 minutes    43 seconds
       7     800      64  1.00e-08  1.00e-07  5.00e-03  0.08529825  0.20364568  0.00000000  0.00000000  0.08161989  0.20383037  0.00000000  0.00000000  2.16e+03     0 days     0 hours    36 minutes     0 seconds
       7     800      64  1.00e-08  1.00e-08  5.00e-03  0.08088117  0.23469247  0.00000000  0.00000000  0.08221191  0.20012958  0.00000000  0.00000000  2.43e+03     0 days     0 hours    40 minutes    30 seconds
       7     800      64  1.00e-08  1.00e-09  5.00e-03  0.08384820  0.21996728  0.00000000  0.00000000  0.08184971  0.20739471  0.00000000  0.00000000  1.87e+03     0 days     0 hours    31 minutes     9 seconds
       7     800     128  1.00e-08  1.00e-07  5.00e-03  0.09690776  0.21400361  0.00000000  0.00000000  0.09457594  0.21677009  0.00000000  0.00000000  9.46e+02     0 days     0 hours    15 minutes    46 seconds
       7     800     128  1.00e-08  1.00e-08  5.00e-03  0.09645522  0.21317940  0.00000000  0.00000000  0.09643529  0.22312090  0.00000000  0.00000000  8.07e+02     0 days     0 hours    13 minutes    27 seconds
       7     800     128  1.00e-08  1.00e-09  5.00e-03  0.09634034  0.21245551  0.00000000  0.00000000  0.09373450  0.21814418  0.00000000  0.00000000  1.48e+03     0 days     0 hours    24 minutes    35 seconds
Grid Search End:  2023-11-02 17:01:10 Total:     0 days     2 hours    23 minutes    14 seconds
